#%Module1.0

proc ModulesHelp { } {
  puts stderr "Simple module for DL_POLY 5.1.0"
}
module-whatis   "Simple module for DL_POLY 5.1.0"

prepend-path PATH /usr/local/bin
prepend-path LD_LIBRARY_PATH /usr/local/lib

